<?xml version='1.0'?>
<VTKFile type='RectilinearGrid' version='0.1' byte_order='LittleEndian'>
    <RectilinearGrid WholeExtent='0 5 0 5 0 0'>
        <Piece Extent='0 5 0 5 0 0'>
            <Coordinates>
                <DataArray type='Float64' format='ascii'>
                 0.00000000E+00   0.20000000E+00   0.40000000E+00   0.60000000E+00   0.80000000E+00   0.10000000E+01 
                </DataArray>
                <DataArray type='Float64' format='ascii'>
                 0.00000000E+00   0.20000000E+00   0.40000000E+00   0.60000000E+00   0.80000000E+00   0.10000000E+01 
                </DataArray>
                <DataArray type='Float64' format='ascii'>
                 0.00000000E+00   0.00000000E+00
                </DataArray>
            </Coordinates>
            <PointData>
                <DataArray type='Float64' Name='variable0' format='ascii'>
 -0.00000000E+00  -0.00000000E+00  -0.00000000E+00  -0.00000000E+00  -0.00000000E+00  -0.00000000E+00  -0.00000000E+00  -0.40000000E-01  -0.80000000E-01  -0.12000000E+00  -0.16000000E+00  -0.20000000E+00  -0.00000000E+00  -0.80000000E-01  -0.16000000E+00  -0.24000000E+00  -0.32000000E+00  -0.40000000E+00  -0.00000000E+00  -0.12000000E+00  -0.24000000E+00  -0.36000000E+00  -0.48000000E+00  -0.60000000E+00  -0.00000000E+00  -0.16000000E+00  -0.32000000E+00  -0.48000000E+00  -0.64000000E+00  -0.80000000E+00  -0.00000000E+00  -0.20000000E+00  -0.40000000E+00  -0.60000000E+00  -0.80000000E+00  -0.10000000E+01 
                </DataArray>
                <DataArray type='Float64' Name='variable1' format='ascii'>
  0.00000000E+00   0.00000000E+00   0.00000000E+00   0.00000000E+00   0.00000000E+00   0.00000000E+00   0.00000000E+00   0.40000000E-01   0.80000000E-01   0.12000000E+00   0.16000000E+00   0.20000000E+00   0.00000000E+00   0.80000000E-01   0.16000000E+00   0.24000000E+00   0.32000000E+00   0.40000000E+00   0.00000000E+00   0.12000000E+00   0.24000000E+00   0.36000000E+00   0.48000000E+00   0.60000000E+00   0.00000000E+00   0.16000000E+00   0.32000000E+00   0.48000000E+00   0.64000000E+00   0.80000000E+00   0.00000000E+00   0.20000000E+00   0.40000000E+00   0.60000000E+00   0.80000000E+00   0.10000000E+01 
                </DataArray>
            </PointData>
        </Piece>
    </RectilinearGrid>
</VTKFile>
